COMMENT LINE                                                            
Force     RwB97X                                                      6-31G(d)            
Number of atoms                            I                8
Info1-9                                    I   N=           9
          17          17           0           0           0         100
           5          18        -702
Charge                                     I                0
Multiplicity                               I                1
Number of electrons                        I               46
Number of alpha electrons                  I               23
Number of beta electrons                   I               23
Number of basis functions                  I               94
Number of independent functions            I               94
Number of point charges in /Mol/           I                0
Number of translation vectors              I                0
Atomic numbers                             I   N=           8
           8           6           8           6           8           8
           1           1
Nuclear charges                            R   N=           8
  8.00000000E+00  6.00000000E+00  8.00000000E+00  6.00000000E+00  8.00000000E+00
  8.00000000E+00  1.00000000E+00  1.00000000E+00
Current cartesian coordinates              R   N=          24
 -2.53920871E+00  1.84212375E+00 -9.83044404E-02 -1.37238329E+00 -2.51920919E-01
  1.87333829E-01 -2.82203901E+00 -2.08260573E+00 -1.74482842E-01  1.52246564E+00
  2.55831855E-01  1.88249341E-01  2.72218164E+00 -1.97958783E+00  1.14812687E-01
  2.50914526E+00  2.27698408E+00 -1.25107929E-01 -4.31062641E+00  1.65228077E+00
  7.02254442E-01  4.44949886E+00 -2.13106055E+00 -6.91093264E-01
Force Field                                I                0
Int Atom Types                             I   N=           8
           0           0           0           0           0           0
           0           0
MM charges                                 R   N=           8
  0.00000000E+00  0.00000000E+00  0.00000000E+00  0.00000000E+00  0.00000000E+00
  0.00000000E+00  0.00000000E+00  0.00000000E+00
Integer atomic weights                     I   N=           8
          16          12          16          12          16          16
           1           1
Real atomic weights                        R   N=           8
  1.59949146E+01  1.20000000E+01  1.59949146E+01  1.20000000E+01  1.59949146E+01
  1.59949146E+01  1.00782504E+00  1.00782504E+00
Atom fragment info                         I   N=           8
           0           0           0           0           0           0
           0           0
Atom residue num                           I   N=           8
           0           0           0           0           0           0
           0           0
Nuclear spins                              I   N=           8
           0           0           0           0           0           0
           1           1
Nuclear ZEff                               R   N=           8
 -5.60000000E+00 -3.60000000E+00 -5.60000000E+00 -3.60000000E+00 -5.60000000E+00
 -5.60000000E+00 -1.00000000E+00 -1.00000000E+00
Nuclear ZNuc                               R   N=           8
  8.00000000E+00  6.00000000E+00  8.00000000E+00  6.00000000E+00  8.00000000E+00
  8.00000000E+00  1.00000000E+00  1.00000000E+00
Nuclear QMom                               R   N=           8
  0.00000000E+00  0.00000000E+00  0.00000000E+00  0.00000000E+00  0.00000000E+00
  0.00000000E+00  0.00000000E+00  0.00000000E+00
Nuclear GFac                               R   N=           8
  0.00000000E+00  0.00000000E+00  0.00000000E+00  0.00000000E+00  0.00000000E+00
  0.00000000E+00  2.79284600E+00  2.79284600E+00
MicOpt                                     I   N=           8
          -1          -1          -1          -1          -1          -1
          -1          -1
Number of contracted shells                I               28
Number of primitive shells                 I               74
Pure/Cartesian d shells                    I                1
Pure/Cartesian f shells                    I                0
Highest angular momentum                   I                2
Largest degree of contraction              I                6
Shell types                                I   N=          28
           0          -1          -1           2           0          -1
          -1           2           0          -1          -1           2
           0          -1          -1           2           0          -1
          -1           2           0          -1          -1           2
           0           0           0           0
Number of primitives per shell             I   N=          28
           6           3           1           1           6           3
           1           1           6           3           1           1
           6           3           1           1           6           3
           1           1           6           3           1           1
           3           1           3           1
Shell to atom map                          I   N=          28
           1           1           1           1           2           2
           2           2           3           3           3           3
           4           4           4           4           5           5
           5           5           6           6           6           6
           7           7           8           8
Primitive exponents                        R   N=          74
  5.48467166E+03  8.25234946E+02  1.88046958E+02  5.29645000E+01  1.68975704E+01
  5.79963534E+00  1.55396162E+01  3.59993359E+00  1.01376175E+00  2.70005823E-01
  8.00000000E-01  3.04752488E+03  4.57369518E+02  1.03948685E+02  2.92101553E+01
  9.28666296E+00  3.16392696E+00  7.86827235E+00  1.88128854E+00  5.44249258E-01
  1.68714478E-01  8.00000000E-01  5.48467166E+03  8.25234946E+02  1.88046958E+02
  5.29645000E+01  1.68975704E+01  5.79963534E+00  1.55396162E+01  3.59993359E+00
  1.01376175E+00  2.70005823E-01  8.00000000E-01  3.04752488E+03  4.57369518E+02
  1.03948685E+02  2.92101553E+01  9.28666296E+00  3.16392696E+00  7.86827235E+00
  1.88128854E+00  5.44249258E-01  1.68714478E-01  8.00000000E-01  5.48467166E+03
  8.25234946E+02  1.88046958E+02  5.29645000E+01  1.68975704E+01  5.79963534E+00
  1.55396162E+01  3.59993359E+00  1.01376175E+00  2.70005823E-01  8.00000000E-01
  5.48467166E+03  8.25234946E+02  1.88046958E+02  5.29645000E+01  1.68975704E+01
  5.79963534E+00  1.55396162E+01  3.59993359E+00  1.01376175E+00  2.70005823E-01
  8.00000000E-01  1.87311370E+01  2.82539436E+00  6.40121692E-01  1.61277759E-01
  1.87311370E+01  2.82539436E+00  6.40121692E-01  1.61277759E-01
Contraction coefficients                   R   N=          74
  1.83107443E-03  1.39501722E-02  6.84450781E-02  2.32714336E-01  4.70192898E-01
  3.58520853E-01 -1.10777550E-01 -1.48026263E-01  1.13076702E+00  1.00000000E+00
  1.00000000E+00  1.83473713E-03  1.40373228E-02  6.88426223E-02  2.32184443E-01
  4.67941348E-01  3.62311985E-01 -1.19332420E-01 -1.60854152E-01  1.14345644E+00
  1.00000000E+00  1.00000000E+00  1.83107443E-03  1.39501722E-02  6.84450781E-02
  2.32714336E-01  4.70192898E-01  3.58520853E-01 -1.10777550E-01 -1.48026263E-01
  1.13076702E+00  1.00000000E+00  1.00000000E+00  1.83473713E-03  1.40373228E-02
  6.88426223E-02  2.32184443E-01  4.67941348E-01  3.62311985E-01 -1.19332420E-01
 -1.60854152E-01  1.14345644E+00  1.00000000E+00  1.00000000E+00  1.83107443E-03
  1.39501722E-02  6.84450781E-02  2.32714336E-01  4.70192898E-01  3.58520853E-01
 -1.10777550E-01 -1.48026263E-01  1.13076702E+00  1.00000000E+00  1.00000000E+00
  1.83107443E-03  1.39501722E-02  6.84450781E-02  2.32714336E-01  4.70192898E-01
  3.58520853E-01 -1.10777550E-01 -1.48026263E-01  1.13076702E+00  1.00000000E+00
  1.00000000E+00  3.34946043E-02  2.34726953E-01  8.13757326E-01  1.00000000E+00
  3.34946043E-02  2.34726953E-01  8.13757326E-01  1.00000000E+00
P(S=P) Contraction coefficients            R   N=          74
  0.00000000E+00  0.00000000E+00  0.00000000E+00  0.00000000E+00  0.00000000E+00
  0.00000000E+00  7.08742682E-02  3.39752839E-01  7.27158577E-01  1.00000000E+00
  0.00000000E+00  0.00000000E+00  0.00000000E+00  0.00000000E+00  0.00000000E+00
  0.00000000E+00  0.00000000E+00  6.89990666E-02  3.16423961E-01  7.44308291E-01
  1.00000000E+00  0.00000000E+00  0.00000000E+00  0.00000000E+00  0.00000000E+00
  0.00000000E+00  0.00000000E+00  0.00000000E+00  7.08742682E-02  3.39752839E-01
  7.27158577E-01  1.00000000E+00  0.00000000E+00  0.00000000E+00  0.00000000E+00
  0.00000000E+00  0.00000000E+00  0.00000000E+00  0.00000000E+00  6.89990666E-02
  3.16423961E-01  7.44308291E-01  1.00000000E+00  0.00000000E+00  0.00000000E+00
  0.00000000E+00  0.00000000E+00  0.00000000E+00  0.00000000E+00  0.00000000E+00
  7.08742682E-02  3.39752839E-01  7.27158577E-01  1.00000000E+00  0.00000000E+00
  0.00000000E+00  0.00000000E+00  0.00000000E+00  0.00000000E+00  0.00000000E+00
  0.00000000E+00  7.08742682E-02  3.39752839E-01  7.27158577E-01  1.00000000E+00
  0.00000000E+00  0.00000000E+00  0.00000000E+00  0.00000000E+00  0.00000000E+00
  0.00000000E+00  0.00000000E+00  0.00000000E+00  0.00000000E+00
Coordinates of each shell                  R   N=          84
 -2.53920871E+00  1.84212375E+00 -9.83044404E-02 -2.53920871E+00  1.84212375E+00
 -9.83044404E-02 -2.53920871E+00  1.84212375E+00 -9.83044404E-02 -2.53920871E+00
  1.84212375E+00 -9.83044404E-02 -1.37238329E+00 -2.51920919E-01  1.87333829E-01
 -1.37238329E+00 -2.51920919E-01  1.87333829E-01 -1.37238329E+00 -2.51920919E-01
  1.87333829E-01 -1.37238329E+00 -2.51920919E-01  1.87333829E-01 -2.82203901E+00
 -2.08260573E+00 -1.74482842E-01 -2.82203901E+00 -2.08260573E+00 -1.74482842E-01
 -2.82203901E+00 -2.08260573E+00 -1.74482842E-01 -2.82203901E+00 -2.08260573E+00
 -1.74482842E-01  1.52246564E+00  2.55831855E-01  1.88249341E-01  1.52246564E+00
  2.55831855E-01  1.88249341E-01  1.52246564E+00  2.55831855E-01  1.88249341E-01
  1.52246564E+00  2.55831855E-01  1.88249341E-01  2.72218164E+00 -1.97958783E+00
  1.14812687E-01  2.72218164E+00 -1.97958783E+00  1.14812687E-01  2.72218164E+00
 -1.97958783E+00  1.14812687E-01  2.72218164E+00 -1.97958783E+00  1.14812687E-01
  2.50914526E+00  2.27698408E+00 -1.25107929E-01  2.50914526E+00  2.27698408E+00
 -1.25107929E-01  2.50914526E+00  2.27698408E+00 -1.25107929E-01  2.50914526E+00
  2.27698408E+00 -1.25107929E-01 -4.31062641E+00  1.65228077E+00  7.02254442E-01
 -4.31062641E+00  1.65228077E+00  7.02254442E-01  4.44949886E+00 -2.13106055E+00
 -6.91093264E-01  4.44949886E+00 -2.13106055E+00 -6.91093264E-01
Constraint Structure                       R   N=          24
 -2.53920871E+00  1.84212375E+00 -9.83044404E-02 -1.37238329E+00 -2.51920919E-01
  1.87333829E-01 -2.82203901E+00 -2.08260573E+00 -1.74482842E-01  1.52246564E+00
  2.55831855E-01  1.88249341E-01  2.72218164E+00 -1.97958783E+00  1.14812687E-01
  2.50914526E+00  2.27698408E+00 -1.25107929E-01 -4.31062641E+00  1.65228077E+00
  7.02254442E-01  4.44949886E+00 -2.13106055E+00 -6.91093264E-01
Num ILSW                                   I              100
ILSW                                       I   N=         100
           0           1           0           0           2           0
           0           0           0           0        4538          -1
           0           0           0           0           2           0
           0           0           1           0           1           0
           1           0           0           0           0           0
           0           0      100000           0          -1           0
           0           0           0           0           0           0
           0           0           0           1           0           0
           0           0           1           0           0           0
           0           0           4          41           0           0
           0           0          57           0           0           0
           0           0           0           0           0           0
           0           0           0           0           0           0
           0           0           0           0           0           0
           0           0           0           0           0           0
           0           0           0           0           0           0
           0           0           0           0
Num RLSW                                   I               41
RLSW                                       R   N=          41
  1.00000000E+00  1.00000000E+00  1.00000000E+00  1.00000000E+00  1.00000000E+00
  0.00000000E+00  3.00000000E-01  1.57706000E-01  0.00000000E+00  8.42294000E-01
  0.00000000E+00  3.00000000E-01  0.00000000E+00  0.00000000E+00  1.00000000E+00
  0.00000000E+00  0.00000000E+00  1.00000000E+00  0.00000000E+00  0.00000000E+00
  0.00000000E+00  0.00000000E+00  1.00000000E+00  0.00000000E+00  0.00000000E+00
  0.00000000E+00  0.00000000E+00  1.00000000E+00  0.00000000E+00  0.00000000E+00
  0.00000000E+00  0.00000000E+00  1.00000000E+00  0.00000000E+00  0.00000000E+00
  0.00000000E+00  0.00000000E+00  0.00000000E+00  1.00000000E+00  1.00000000E+00
  0.00000000E+00
MxBond                                     I                3
NBond                                      I   N=           8
           2           3           1           3           2           1
           1           1
IBond                                      I   N=          24
           2           7           0           1           3           4
           2           0           0           2           5           6
           4           8           0           4           0           0
           1           0           0           5           0           0
RBond                                      R   N=          24
  2.00000000E+00  1.00000000E+00  0.00000000E+00  2.00000000E+00  2.00000000E+00
  1.00000000E+00  2.00000000E+00  0.00000000E+00  0.00000000E+00  1.00000000E+00
  1.50000000E+00  2.00000000E+00  1.50000000E+00  1.00000000E+00  0.00000000E+00
  2.00000000E+00  0.00000000E+00  0.00000000E+00  1.00000000E+00  0.00000000E+00
  0.00000000E+00  1.00000000E+00  0.00000000E+00  0.00000000E+00
Virial Ratio                               R      2.008759617393129E+00
SCF Energy                                 R     -3.781765223654010E+02
Total Energy                               R     -3.781765223654010E+02
RMS Force                                  R      3.951965972032156E-02
RMS Density                                R      5.792304692495536E-09
External E-field                           R   N=          35
  0.00000000E+00  0.00000000E+00  0.00000000E+00  0.00000000E+00  0.00000000E+00
  0.00000000E+00  0.00000000E+00  0.00000000E+00  0.00000000E+00  0.00000000E+00
  0.00000000E+00  0.00000000E+00  0.00000000E+00  0.00000000E+00  0.00000000E+00
  0.00000000E+00  0.00000000E+00  0.00000000E+00  0.00000000E+00  0.00000000E+00
  0.00000000E+00  0.00000000E+00  0.00000000E+00  0.00000000E+00  0.00000000E+00
  0.00000000E+00  0.00000000E+00  0.00000000E+00  0.00000000E+00  0.00000000E+00
  0.00000000E+00  0.00000000E+00  0.00000000E+00  0.00000000E+00  0.00000000E+00
IOpCl                                      I                0
IROHF                                      I                0
Alpha Orbital Energies                     R   N=          94
 -1.92883256E+01 -1.92772896E+01 -1.92455975E+01 -1.92187749E+01 -1.04495506E+01
 -1.04324815E+01 -1.27619571E+00 -1.24768465E+00 -1.17105214E+00 -1.12319329E+00
 -8.56337758E-01 -7.57649144E-01 -6.55524231E-01 -6.20299393E-01 -6.12078390E-01
 -5.96629002E-01 -5.55811444E-01 -5.33319173E-01 -4.92072803E-01 -4.48771632E-01
 -4.36201811E-01 -4.19082480E-01 -3.74181015E-01  1.00165683E-02  1.28750496E-01
  1.46389324E-01  1.68013106E-01  2.80420053E-01  3.45983618E-01  3.82086815E-01
  4.60378989E-01  5.15387374E-01  5.94486695E-01  6.39607849E-01  6.93718181E-01
  7.14770621E-01  7.30983604E-01  7.58371299E-01  7.68544746E-01  8.47952249E-01
  8.72805561E-01  9.43221809E-01  9.70224131E-01  9.77316880E-01  1.00647515E+00
  1.02378730E+00  1.04262316E+00  1.07285994E+00  1.12016996E+00  1.14588653E+00
  1.16912076E+00  1.21004713E+00  1.28372545E+00  1.31660466E+00  1.34164032E+00
  1.44369281E+00  1.50381153E+00  1.55377207E+00  1.61771679E+00  1.65670884E+00
  1.73015810E+00  1.76542400E+00  1.81837328E+00  1.87433892E+00  1.89679404E+00
  1.91865149E+00  1.93583784E+00  1.96508286E+00  1.97769163E+00  2.04864006E+00
  2.08188552E+00  2.13687583E+00  2.23079005E+00  2.24194448E+00  2.34570706E+00
  2.39156239E+00  2.40482089E+00  2.51565151E+00  2.59009504E+00  2.69585210E+00
  2.75356605E+00  2.78843676E+00  2.87792632E+00  2.93319395E+00  2.99488722E+00
  3.07740109E+00  3.19345703E+00  3.26091667E+00  3.79599816E+00  4.06981963E+00
  4.10711780E+00  4.11156140E+00  4.52183423E+00  4.65398196E+00
Alpha MO coefficients                      R   N=        8836
  4.58912314E-05  1.81346006E-04  2.77901379E-05 -1.20050751E-05  1.16739727E-05
 -1.02109891E-03 -2.92408041E-04  2.09285557E-04 -7.42736545E-05  8.11957283E-05
  1.19030157E-04  1.23897887E-04  3.65565149E-05 -1.09209309E-05  6.28221795E-06
  1.12937001E-05  9.98067454E-05 -2.02117730E-06  3.59496854E-06 -1.24644185E-05
  4.33380583E-04  8.84780705E-06  7.67179024E-04  5.37950066E-05 -7.27926733E-05
  2.75819040E-05  1.60730949E-05  1.52323779E-05  6.94706765E-06 -1.76202565E-05
 -4.34547732E-05 -8.11818121E-05  5.78186227E-06 -1.24211084E-05 -2.43198273E-06
  4.64347154E-04  1.21212181E-04  5.25359730E-05  2.61653082E-05 -1.50625298E-05
 -3.32417791E-05 -2.93462951E-05 -5.79506475E-06  1.56039093E-06 -4.12562323E-06
  6.06603795E-06  3.75284302E-04  1.94833575E-04 -3.24838623E-04  5.52888823E-06
 -1.18462577E-03  2.27814536E-05  9.52227030E-04 -1.43448791E-04  1.08465774E-05
  7.32842191E-05 -3.57911095E-05  2.73536850E-05 -1.25955424E-05 -1.64803107E-05
  9.93108680E-01  2.55034031E-02  5.00354043E-04  8.01437875E-04 -3.21361694E-04
  9.56015908E-03 -5.00786116E-04  4.96327324E-05  1.29408476E-04 -7.24149060E-03
 -7.26854680E-03 -7.21140291E-03  2.38794390E-05  4.24492570E-05  3.77337143E-06
 -2.10813757E-04  9.86053210E-05 -2.45250805E-05  4.21605289E-05 -1.23924399E-06
 -5.29274759E-04  1.24228682E-04  1.17963387E-04 -2.88432102E-06  5.86240064E-05
 -6.64147080E-05  6.61244443E-05  1.70519444E-05 -7.72642460E-06  2.39592296E-06
  1.21459149E-05 -5.80936231E-05  4.85864157E-04 -7.90172526E-04  9.93091697E-01
  2.56064784E-02 -2.99657870E-04 -9.51888180E-04  4.36478142E-04  9.66146062E-03
  4.71188768E-04 -1.32609823E-04 -8.12909005E-05 -7.23784364E-03 -7.18207116E-03
 -7.22466896E-03 -6.31017062E-05  4.53593493E-05  7.51659156E-06  2.05071179E-05
  4.86717876E-04 -1.36408616E-04  2.66073811E-04 -6.04821448E-05 -1.74075012E-03
  1.28494967E-04 -7.60523626E-04  2.55141148E-04 -4.65784592E-05 -1.76650028E-04
 -3.78704976E-05  1.69349233E-04 -1.28456324E-05  2.92112997E-05 -2.50026053E-04
 -8.51449075E-05  3.14640959E-06 -1.09882074E-04 -3.02320424E-06  2.92340439E-04
 -5.00418115E-07  1.12478196E-04 -2.12102395E-05 -2.99262770E-05 -1.39248684E-04
 -7.73104677E-05  3.00727507E-06 -6.97217289E-06  3.00058976E-06  5.42918478E-06
  8.70152668E-05  3.35414300E-05  2.02892648E-05 -3.20084449E-06  5.80424597E-04
 -6.06211535E-05 -6.26337930E-04 -5.27152070E-05 -1.06516672E-04  3.92122718E-05
 -8.25455848E-06  2.32389450E-05 -8.07209770E-07  7.62644499E-06  2.38876678E-05
  1.39713524E-04 -2.45083131E-05  8.15046072E-06  8.74977837E-06 -8.06621852E-04
  2.63635663E-04 -1.89662022E-04 -3.24394059E-05  5.97969025E-05  9.37448494E-05
  9.05604802E-05  3.91998098E-05  3.31810583E-06  2.06271400E-06 -6.76404062E-05
  1.92739297E-05 -4.36454003E-05  1.85545314E-05 -1.37278165E-05  5.71753260E-05
  8.04978297E-05 -1.54267136E-06  5.23851309E-05  1.37158387E-05  3.06992363E-05
  7.65898196E-05 -2.15935573E-05 -4.86086317E-07  2.57061645E-06  4.56404763E-04
 -7.28603420E-04 -6.69136751E-06 -5.49428508E-05  1.16399433E-04  1.58222125E-04
  3.26848034E-05  5.05854594E-07  5.42282421E-08 -9.96387813E-04 -1.53984178E-04
  2.42379719E-04 -2.86872101E-05  1.21468816E-04  7.27666470E-05  1.26608156E-04
  8.19967052E-06 -9.10396224E-07  8.16651748E-06  7.88586345E-06  4.20966079E-05
  5.35365257E-08  2.64620049E-05  9.60960518E-07 -4.24609940E-04 -5.30644635E-04
  1.03063048E-03 -1.03091530E-04  1.43751721E-05 -1.67442970E-05  6.65325292E-06
 -7.54527242E-05  1.07352717E-05 -1.04554406E-05  6.31934252E-06 -6.07938286E-05
  8.84542135E-06  1.90036079E-05 -4.92605544E-06  5.16236056E-04  2.11034835E-04
 -3.14277095E-07  8.71410806E-05 -1.24977276E-05 -4.39364647E-05 -2.48614887E-05
  2.34560752E-05  2.12166513E-05  1.09527560E-05 -1.32364208E-06  4.55116561E-04
 -3.30024723E-05 -8.74774440E-05  1.65865209E-05 -1.99367165E-03 -1.25816182E-03
 -2.63710381E-03  3.33372790E-04 -1.96211392E-04 -8.33027736E-04 -7.00890325E-05
 -4.47802945E-04  7.08785120E-05  1.45582645E-04  2.38369131E-04  5.59689409E-05
 -3.13512948E-05 -2.86193499E-05  1.39646384E-05 -5.00445389E-04  2.57144683E-04
  3.50836444E-05 -7.51839250E-05  1.01699747E-04 -4.56189176E-05 -2.29204386E-05
 -6.88454915E-05 -1.79749316E-05  1.71174613E-05  9.93098146E-01  2.52822144E-02
 -5.86477556E-04 -1.23282190E-03  1.85308307E-04  1.16145784E-02 -4.93955786E-04
 -1.02703815E-03  1.91137081E-04 -7.20703805E-03 -6.87299521E-03 -7.30141566E-03
  2.50310787E-04 -4.22834667E-05 -8.30366938E-05  5.52181952E-06 -6.16969648E-05
 -4.76259097E-05 -9.09499947E-06  2.30436421E-04 -3.50332881E-05  1.65949154E-05
  9.30879819E-05  4.17110364E-06  1.26707718E-05 -2.38742748E-04 -1.02400522E-04
 -4.12247130E-05 -1.68320759E-05 -1.04640966E-04 -6.04316377E-05 -1.52827230E-05
 -7.35837865E-06 -1.08759210E-05 -4.98617340E-06  5.20649760E-04 -1.16585913E-04
 -8.60015159E-05 -2.46927151E-05 -1.50212958E-03  1.79020712E-03  1.97741911E-03
  3.43625518E-04 -3.17140731E-04 -4.29141765E-04 -7.68889371E-05 -3.96711948E-04
 -7.29931444E-05 -1.04938091E-04  9.93131026E-01  2.52646529E-02  7.43340862E-04
  8.66440962E-04  2.23821330E-04  1.08498197E-02  5.02089789E-04  7.37242716E-04
  1.54617363E-04 -7.09187684E-03 -6.99608509E-03 -7.19827015E-03  1.79097804E-04
  3.46679481E-05  5.23935989E-05  1.81832251E-05  1.30568008E-05 -1.63591531E-05
  3.14448504E-07  7.24044496E-06 -8.23349572E-04  7.06410089E-04 -7.18624983E-04
 -1.12360409E-04  1.15372651E-04  2.32378534E-05  3.67585581E-05 -3.21138532E-05
 -2.30325083E-06  9.62643916E-08  5.81759032E-05  1.07253002E-04 -9.55868845E-06
  1.69657121E-05 -2.12340804E-06 -6.91343000E-04  3.67160375E-05 -2.31098714E-04
  1.22290106E-05  1.05664275E-04  3.69857403E-05  8.85076909E-05  8.35163578E-06
  2.10768911E-06  2.85835360E-06 -2.01114462E-05  4.36402877E-06 -9.84533774E-06
 -1.51888832E-05 -3.30690099E-06  2.67383412E-04 -1.08551204E-04  3.21808645E-05
  6.18794106E-05 -8.14083785E-06 -2.20011376E-05  3.68670978E-05  1.02909002E-05
 -5.74202238E-06 -5.90820512E-06  5.12167435E-08 -9.45089857E-05  1.99054105E-05
 -4.34612112E-05 -7.42904444E-05 -4.05429849E-04 -7.18476637E-05  2.51335052E-05
 -7.87439986E-06  1.81031798E-03  2.31479718E-04 -6.26335746E-04  5.73832753E-05
 -1.52003560E-04 -7.83942403E-05 -3.21982371E-04 -4.72104696E-06  1.15843243E-05
 -3.90957870E-05  3.42160191E-03 -2.07411743E-04 -2.21984306E-04 -9.56855910E-05
  1.47680680E-05  6.79287061E-03  5.00779263E-03 -1.08300310E-03  1.37270434E-04
 -8.52274289E-04 -3.80496784E-04 -3.57168729E-04 -1.07065149E-04 -3.20349825E-05
  4.08773936E-05  6.15022662E-06  3.44958840E-05  3.85331710E-05  1.48949043E-05
  1.68624099E-05 -2.30810665E-04 -7.83822366E-04  4.06746704E-04 -2.74686613E-05
 -1.10868152E-04  2.42185025E-04 -4.61148869E-05 -4.27422317E-06 -2.59295223E-05
  7.00170701E-05  9.93653691E-01  4.41780162E-02  6.59147654E-04 -9.20188413E-05
 -1.36078396E-04 -9.10153688E-03  6.64362319E-03  4.15974684E-03 -3.70809074E-04
 -6.88736783E-03 -5.73127326E-03 -7.42235522E-03  2.17748933E-04 -1.53607848E-04
 -1.62649891E-04 -5.26990509E-05  2.40815158E-04  1.25733280E-04 -5.41508424E-05
 -6.04829903E-06  1.76606034E-05 -2.99168407E-04 -1.64366464E-03  1.02027951E-05
 -2.29602483E-05 -7.84151649E-04  4.41764946E-04  4.66151806E-04  4.65176293E-05
 -5.93816087E-05 -4.98017218E-05  8.89337000E-04  1.27386075E-04 -2.18702863E-07
  2.15004172E-05 -6.50343025E-03  3.85325648E-04  3.07431291E-03 -6.25327277E-04
  5.94362709E-04 -6.68475385E-05  7.57927813E-04 -2.41311396E-04  5.93913614E-05
  1.92161806E-04 -3.54780080E-06  3.77844574E-04  1.14483593E-04 -1.06905652E-04
 -1.03995783E-04  2.17638693E-04 -1.36660334E-04  1.04871088E-04 -6.73939616E-06
 -7.20609100E-04  3.13130661E-04  1.90672643E-03 -2.28710801E-04 -1.70422944E-05
 -6.61129781E-04  3.66671805E-04  3.83738834E-04  9.66059423E-07  1.91745108E-04
  9.93592933E-01  4.42804070E-02 -7.06172420E-04  7.16625719E-04 -2.71628368E-04
 -9.01560987E-03 -7.65579188E-03 -3.81245506E-03 -3.26533047E-04 -6.60818296E-03
 -6.14922660E-03 -7.55837374E-03  1.28507576E-04  2.31863157E-04  3.17731241E-05
  1.52191079E-05  8.37506965E-04 -1.16631309E-04 -1.95407406E-05  4.78422332E-05
 -6.24286539E-03 -9.44760967E-04 -2.54491644E-03 -7.66716757E-04  4.84244340E-04
 -6.83025574E-06  6.13579494E-04 -3.84436014E-04 -1.06026363E-04 -2.04164535E-04
 -3.85593100E-03 -5.57620454E-04  1.71454139E-04  5.28690700E-05 -9.49504666E-06
  7.65613635E-03 -4.82111361E-03  1.48771539E-03  7.55160217E-05 -8.34877842E-04
 -3.58714044E-04 -3.31936959E-04 -1.15240837E-04  1.55722803E-05 -1.56841442E-05
 -9.96731402E-05 -5.15033026E-04  8.87123591E-05 -7.66493991E-05 -2.16445498E-05
  2.18748084E-03 -3.62810690E-04  7.11860214E-04  9.87012594E-05 -1.98688331E-04
 -1.79556316E-04 -4.33961401E-04 -2.23371295E-05  2.92738857E-07  9.23383312E-06
  2.68841251E-06 -7.57277959E-06  4.79353545E-06 -2.30420172E-06  1.23447861E-05
 -8.91596045E-04  7.33162340E-04 -1.93829696E-04 -8.43103172E-05 -3.94264203E-06
  2.05479263E-04 -1.73186568E-04 -5.65411981E-05  2.81106729E-05 -5.47890719E-05
  1.96294422E-04 -6.27396626E-05 -3.06646843E-05  3.03255410E-04 -1.46921533E-01
  3.25095643E-01  9.42336871E-03 -1.02513077E-01  3.08243994E-02  2.87459044E-01
 -7.51220626E-03 -4.09564514E-02  1.57692443E-02  8.13948514E-03  6.39588229E-03
 -2.58944334E-03 -4.07258605E-03 -6.10720697E-03 -4.82276298E-03 -1.09543260E-01
  2.11867232E-01 -7.74229584E-02  5.75520913E-02 -2.08233024E-02  5.25536519E-02
  1.91250285E-02  6.31163081E-03  4.21523978E-03  1.99308859E-03  1.24102872E-02
 -1.64607908E-02 -5.15785904E-03  2.79821966E-03 -1.19779648E-03 -7.14715408E-02
  1.54275610E-01  3.51030402E-02  6.30157834E-02  9.41849196E-03  1.40836278E-01
  1.04634870E-02  2.54052097E-02  4.65094895E-03 -7.33683893E-04  2.85314618E-03
 -2.33990376E-03  5.93640680E-03  4.81529796E-04  1.96515448E-03 -7.00063319E-02
  1.35786273E-01  1.75235687E-02  1.41396907E-02 -1.02965788E-02  3.57079659E-02
 -1.16860000E-02 -8.23064217E-03 -9.80905686E-04  1.81371700E-03  8.25606700E-03
 -1.01749434E-02  1.94132567E-03 -8.05108919E-04 -1.48364761E-03 -6.15400953E-02
  1.38133650E-01 -2.67529809E-03  3.96290984E-02 -8.02724954E-03  1.18146122E-01
  6.12695217E-03  1.83477481E-02 -4.74212790E-03  3.75855582E-03  4.95314291E-03
 -7.25223880E-04 -3.09964377E-03 -2.92999878E-03 -1.56049394E-04 -5.94525013E-02
  1.28554873E-01 -2.54167604E-02 -5.11274065E-02  6.56165467E-03  1.14430079E-01
 -6.38279108E-03 -1.74913611E-02  2.59718065E-03 -1.77447588E-03  2.71352670E-03
 -1.70423125E-03  3.23162500E-03 -2.12092840E-04 -7.75543625E-04  6.83172811E-02
 -1.69559591E-03  2.76332359E-02 -7.10344203E-04  8.62311710E-02 -1.87925054E-01
  4.95942785E-03  5.81488691E-02 -1.86860970E-02 -1.84497707E-01  3.80507368E-03
  2.70343349E-02 -9.83589505E-03 -3.21931496E-03 -2.48325090E-03  2.98125542E-03
  1.97111217E-03  3.75241543E-03  2.85719393E-03  4.61046735E-02 -8.88648389E-02
  8.11181570E-02 -3.01974371E-02  1.10300627E-02 -2.71722818E-02 -1.69621646E-02
  2.47801076E-03 -4.85978978E-03  7.81173630E-03 -7.08803682E-03  7.96980759E-03
  5.73719272E-03 -1.82620998E-03  5.00880717E-04  4.00345673E-02 -8.64503196E-02
 -1.59081492E-02 -3.63522402E-02 -5.56651240E-03 -8.05456364E-02 -3.44488567E-03
 -1.67587018E-02 -2.02628516E-03  1.32025867E-03 -2.93081762E-03  1.57130166E-03
 -3.65327001E-03 -2.62298273E-04 -1.48004065E-03 -1.06276286E-01  2.07277112E-01
  9.52470445E-02  1.04709934E-02 -1.79365140E-02  5.86228106E-02 -2.70067492E-02
 -4.70689996E-03  5.43046004E-03 -1.03515077E-02  1.59733681E-02 -1.63186205E-02
 -1.12276931E-03 -2.28478582E-03 -2.08067518E-03 -1.34344383E-01  2.95579601E-01
  7.99678610E-03  7.92707376E-02 -1.85297434E-02  2.86139329E-01  7.02889871E-03
  4.29455516E-02 -1.11082017E-02  6.40444453E-03  6.97335983E-03 -4.42016209E-03
 -6.44288512E-03 -6.63813845E-03 -4.88426897E-04 -1.02905180E-01  2.23211764E-01
 -3.25267392E-02 -9.05686967E-02  1.18931281E-02  2.02131667E-01 -5.13152691E-03
 -3.54760435E-02  2.79368139E-03 -5.25255060E-03  7.15208861E-03 -3.27681497E-03
  5.01661029E-03 -1.50809001E-04 -1.56030443E-03 -4.37093722E-02 -8.06843858E-04
  6.55516554E-02  1.98158439E-03 -6.33577941E-03  1.53377184E-02  7.03708102E-03
  2.22428790E-03  1.53030729E-03  5.16827952E-04  3.63047210E-03  6.63982196E-03
 -2.16951730E-04  2.08746739E-03 -8.41168048E-04  4.06097212E-05 -2.84757455E-06
 -6.54203599E-06  1.16935270E-04  1.27051829E-02 -2.50645801E-02  1.76060500E-02
  3.95419402E-02  3.19422209E-03 -1.93337110E-02 -9.75617977E-03  2.85309048E-02
 -1.82741184E-03  7.51348725E-04  6.45892326E-04  1.80633870E-03 -1.05108522E-03
 -7.83542474E-04 -1.33897744E-03  3.01026143E-02 -6.83875053E-02 -1.66381518E-02
 -1.80486767E-02 -4.45014699E-03 -4.53957233E-02 -8.46301299E-04 -5.65075571E-03
  4.01996307E-04 -6.78599379E-04 -1.88520150E-03  3.20380192E-04 -1.86194618E-03